/*--------------------------------*- C++ -*----------------------------------*\
| =========                 |                                                 |
| \\      /  F ield         | OpenFOAM: The Open Source CFD Toolbox           |
|  \\    /   O peration     | Version:  plus                                  |
|   \\  /    A nd           | Web:      www.OpenFOAM.com                      |
|    \\/     M anipulation  |                                                 |
\*---------------------------------------------------------------------------*/
FoamFile
{
    version     2.0;
    format      ascii;
    class       volVectorField;
    object      boundaryT;
}
// * * * * * * * * * * * * * * * * * * * * * * * * * * * * * * * * * * * * * //

dimensions      [0 0 0 1 0 0 0]; 

internalField   uniform (0 0 0);

boundaryField
{
    inflow
    {
        type            fixedValue;
        value           nonuniform List<vector> 
000 // number of cells in the boundary
(
(0 0 0) // temperature vector (translational, rotational, vibrational)
...
)
;
}
    boundary 
    {
        type            type;
        value           value;
    }
   ...
}

// ************************************************************************* //
